# vtk DataFile Version 3.0
test polygon
ASCII
DATASET UNSTRUCTURED_GRID
POINTS 3 double
1 1 0.0
2 3 0.0
0 0 0.0
CELLS 3 9
2	0 1
2	1 2
2	2 0
CELL_TYPES 3
3
3
3
CELL_DATA 3
SCALARS index float 1
LOOKUP_TABLE default
0
1
2
